# vtk DataFile Version 3.0
Geological mesh
ASCII
DATASET UNSTRUCTURED_GRID
POINTS 351 float
0 0 0.0
5 0 0.17617864089028118
10 0 0.33504421329900924
15 0 0.46224615483889653
20 0 0.5488519894379412
25 0 0.5928757978603163
30 0 0.5996180360259891
35 0 0.580758553502387
40 0 0.5523580092811287
45 0 0.532109670314414
50 0 0.53631184819029
55 0 0.5770790320143077
60 0 0.6602689313342153
0 5 -0.05
5 5 0.11096213849921936
10 5 0.25721496308037944
15 5 0.3765661274080966
20 5 0.46142653225662567
25 5 0.5101089256239998
30 5 0.5271166149463734
35 5 0.5223728887491781
40 5 0.5095230043760398
45 5 0.5035992952410637
50 5 0.5184489301311324
55 5 0.5643644706103801
60 5 0.6463226710115498
0 10 -0.1
5 10 0.019889525085029468
10 10 0.13209782995339003
15 10 0.23025805768152413
20 10 0.3104071721466164
25 10 0.3716640884618855
30 10 0.4163804388185513
35 10 0.44973817560827495
40 10 0.47886286751178386
45 10 0.5116044158886762
50 10 0.5551938278016841
55 10 0.6150058904372223
60 10 0.6936394704866276
0 15 -0.15
5 15 -0.0846851784892901
10 15 -0.017713088636510086
15 15 0.05228995630605286
20 15 0.1261790046405643
25 15 0.2041441556023476
30 15 0.2856780307446496
35 15 0.3696625934266021
40 15 0.4545604603860783
45 15 0.5386779693344481
50 15 0.62045498805986
55 15 0.6987318746827489
60 15 0.7729479084619667
0 20 -0.2
5 20 -0.18634672686912634
10 20 -0.16219617808739606
15 20 -0.11884730743156555
20 20 -0.0508841677705765
25 20 0.04289734527839767
30 20 0.1592834543929605
35 20 0.2911924224102019
40 20 0.42888633575639173
45 20 0.5616373964932658
50 20 0.6795635973056235
55 20 0.7753196699848991
60 20 0.8453539626751038
0 25 -0.25
5 25 -0.269556107718858
10 25 -0.2729323542152182
15 25 -0.24671747688485118
20 25 -0.1825636647448418
25 25 -0.07861498465029401
30 25 0.060175042808700646
35 25 0.2228910593695685
40 25 0.39452363825720405
45 25 0.5585376052380955
50 25 0.6997014362218369
55 25 0.8066935822456819
60 25 0.8740397434958653
0 30 -0.3
5 30 -0.32432444159398643
10 30 -0.33165309391784953
15 30 -0.3078983829230043
20 30 -0.2442915290518629
25 30 -0.1388830070151583
30 30 0.0031238633973607044
35 30 0.17026327748641482
40 30 0.34676890382140246
45 30 0.5152717221769354
50 30 0.659772103746347
55 30 0.7683775694943616
60 30 0.8353377582308074
0 35 -0.35000000000000003
5 35 -0.3492174857892562
10 35 -0.3357353306000229
15 35 -0.29902697812876844
20 35 -0.23254019650023397
25 35 -0.13481825599986022
30 35 -0.009749195728146087
35 35 0.1340994738041555
40 35 0.28494679052848737
45 35 0.42981422679280884
50 35 0.5567464954136674
55 35 0.6568572650950106
60 35 0.7258497349380297
0 40 -0.4
5 40 -0.3517870328504723
10 40 -0.29899043292947114
15 40 -0.23781089059309762
20 40 -0.16588353388941235
25 40 -0.08268259094264792
30 40 0.010388643188067356
35 40 0.11023792975255582
40 40 0.21261321123923976
45 40 0.3128301973778565
50 40 0.4065739121608743
55 40 0.49063704607334313
60 40 0.5634687712260625
0 0 -8.0
5 0 -7.902406990041381
10 0 -7.842902730742179
15 0 -7.853058459354427
20 0 -7.95252562323653
25 0 -8.145673244707304
30 0 -8.420840320742824
35 0 -8.752331182294748
40 0 -9.104812379581517
45 0 -9.439358725308288
50 0 -9.720113933981363
55 0 -9.920426129568524
60 0 -10.027408351064727
0 5 -7.91
5 5 -7.845883295301718
10 5 -7.814127081223165
15 5 -7.841554519702187
20 5 -7.944861629035423
25 5 -8.1277603636272
30 5 -8.380343447117978
35 5 -8.680779644751809
40 5 -8.999049390372713
45 5 -9.30208155046966
50 5 -9.559412353711508
55 5 -9.748398164657164
60 5 -9.85809012377459
0 10 -7.82
5 10 -7.846243044812935
10 10 -7.889384774102542
15 10 -7.963432273100647
20 10 -8.077104221277445
25 10 -8.232339005383853
30 10 -8.423963034599188
35 10 -8.640576013661795
40 10 -8.866501691474076
45 10 -9.084470285044912
50 10 -9.278573578836296
55 10 -9.436987041038112
60 10 -9.55399316492942
0 15 -7.73
5 15 -7.876307392676439
10 15 -8.018968795000323
15 15 -8.154962096126685
20 15 -8.282406189790759
25 15 -8.400882857674835
30 15 -8.511508332361771
35 15 -8.616742294461476
40 15 -8.719966987150627
45 15 -8.824908467464214
50 15 -8.934999026268308
55 15 -9.052789875697952
60 15 -9.179514601383673
0 20 -7.64
5 20 -7.899962799112077
10 20 -8.136831591792271
15 20 -8.331464076349445
20 20 -8.47194516909527
25 20 -8.555625840387526
30 20 -8.589576400335487
35 20 -8.589376670697556
40 20 -8.576450061335938
45 20 -8.574397727714816
50 20 -8.60496008592763
55 20 -8.684296726033223
60 20 -8.820221282114773
0 25 -7.55
5 25 -7.883023436981487
10 25 -8.18045117927348
15 25 -8.412778449146673
20 25 -8.561640062438652
25 25 -8.622952966230647
30 25 -8.60761490582086
35 25 -8.53963966938695
40 25 -8.452047995834151
45 25 -8.38121726847619
50 25 -8.36065684031196
55 25 -8.4152741190595
60 25 -8.557112564309097
0 30 -7.46
5 30 -7.80351377150677
10 30 -8.10963680661927
15 30 -8.34737644243061
20 30 -8.497441363914099
25 30 -8.55554261543335
30 30 -8.533127500525808
35 30 -8.455420789529889
40 30 -8.357108411592915
45 30 -8.276402211210742
50 30 -8.248501371758037
55 30 -8.299569347112405
60 30 -8.442256931892224
0 35 -7.37
5 35 -7.658278468736364
10 35 -7.918617727320051
15 35 -8.127859351883291
20 35 -8.271588432300515
25 35 -8.346600163199692
30 35 -8.36144823060192
35 35 -8.334981157630857
40 35 -8.293117060837327
45 35 -8.26440870105582
50 35 -8.27515771008993
55 35 -8.344914016790975
60 35 -8.483130583136333
0 40 -7.28
5 40 -7.46393147227104
10 40 -7.637778952444837
15 40 -7.793183959304815
20 40 -7.9249437745567075
25 40 -8.031901700073826
30 40 -8.11714498498625
35 40 -8.187476554544377
40 40 -8.252250935273672
45 40 -8.321773565768716
50 40 -8.405537393246076
55 40 -8.510598498638645
60 40 -8.640368703302661
0 0 -20.0
5 0 -19.78811417457555
10 0 -19.603929258721585
15 0 -19.470406152257766
20 0 -19.401836816899294
25 0 -19.401398723423494
30 0 -19.460611142358417
35 0 -19.56078631439618
40 0 -19.676227185150196
45 0 -19.778624527496937
50 0 -19.841901042895536
55 0 -19.846673548777108
60 0 -19.783569709865255
0 5 -19.94
5 5 -19.752460578401248
10 5 -19.588456059071394
15 5 -19.467494196147047
20 5 -19.4017175483894
25 5 -19.3938257190016
30 5 -19.4366134160858
35 5 -19.514203378001316
40 5 -19.604763192998337
45 5 -19.6842411276143
50 5 -19.73048171179019
55 5 -19.727016847023393
60 5 -19.66588372638152
0 10 -19.88
5 10 -19.75817675986395
10 10 -19.648643472074575
15 10 -19.561587107709563
20 10 -19.503348524565414
25 10 -19.47533745846098
30 10 -19.473791297890315
35 10 -19.49041891902676
40 10 -19.513819411981146
45 10 -19.531432934578117
50 10 -19.531689875517305
55 10 -19.505990575300444
60 10 -19.450176847221393
0 15 -19.82
5 15 -19.785496285582862
10 15 -19.748340941818416
15 15 -19.706336069910318
20 15 -19.6581135925751
25 15 -19.603369351036243
30 15 -19.54291515080856
35 15 -19.478539850517436
40 15 -19.412703263382276
45 15 -19.348115249064882
50 15 -19.287272019104226
55 15 -19.232029000507602
60 15 -19.18328334646085
0 20 -19.76
5 20 -19.808154762990604
10 20 -19.839513884939834
15 20 -19.84015569189051
20 20 -19.801414668432926
25 20 -19.721364247554565
30 20 -19.605146472971263
35 20 -19.464092124143676
40 20 -19.313781862789774
45 20 -19.171380165610778
50 20 -19.052698244311003
55 20 -18.96948852802416
60 20 -18.927433659719835
0 25 -19.7
5 25 -19.80128977235017
10 25 -19.876691766744347
15 25 -19.90474796301576
20 25 -19.872101863591748
25 25 -19.77578397544047
30 25 -19.623719931506077
35 25 -19.433374305008687
40 25 -19.228762178788475
45 25 -19.036339831619046
50 25 -18.88047770204506
55 25 -18.779290268406907
60 25 -18.741536410406614
0 30 -19.64
5 30 -19.748919106550378
10 30 -19.830644950268557
15 30 -19.862637412676808
20 30 -19.830866446482982
25 30 -19.732212811224255
30 30 -19.57500181856422
35 30 -19.377578756021734
40 30 -19.16516975388576
45 30 -18.965565244516906
50 30 -18.804364634005847
55 30 -18.700595888809023
60 30 -18.663459586830708
0 35 -19.58
5 35 -19.648747977262808
10 35 -19.697176528960032
15 35 -19.708443165006027
20 35 -19.672064314400373
25 35 -19.585709209599774
30 35 -19.45559871316503
35 35 -19.295440841913347
40 35 -19.12408513515442
45 35 -18.962297237131505
50 35 -18.82920560733813
55 35 -18.73902837584798
60 35 -18.69864042409915
0 40 -19.52
5 40 -19.512859252560755
10 40 -19.498384692687154
15 40 -19.470497424948956
20 40 -19.42541365422306
25 40 -19.362292145508235
30 40 -19.28337817089909
35 40 -19.19361931239591
40 40 -19.099818862017216
45 40 -19.00947168419543
50 40 -18.929481740542602
55 40 -18.86498072628265
60 40 -18.818449966038298
CELLS 192 1728
8 0 1 14 13 117 118 131 130
8 1 2 15 14 118 119 132 131
8 2 3 16 15 119 120 133 132
8 3 4 17 16 120 121 134 133
8 4 5 18 17 121 122 135 134
8 5 6 19 18 122 123 136 135
8 6 7 20 19 123 124 137 136
8 7 8 21 20 124 125 138 137
8 8 9 22 21 125 126 139 138
8 9 10 23 22 126 127 140 139
8 10 11 24 23 127 128 141 140
8 11 12 25 24 128 129 142 141
8 13 14 27 26 130 131 144 143
8 14 15 28 27 131 132 145 144
8 15 16 29 28 132 133 146 145
8 16 17 30 29 133 134 147 146
8 17 18 31 30 134 135 148 147
8 18 19 32 31 135 136 149 148
8 19 20 33 32 136 137 150 149
8 20 21 34 33 137 138 151 150
8 21 22 35 34 138 139 152 151
8 22 23 36 35 139 140 153 152
8 23 24 37 36 140 141 154 153
8 24 25 38 37 141 142 155 154
8 26 27 40 39 143 144 157 156
8 27 28 41 40 144 145 158 157
8 28 29 42 41 145 146 159 158
8 29 30 43 42 146 147 160 159
8 30 31 44 43 147 148 161 160
8 31 32 45 44 148 149 162 161
8 32 33 46 45 149 150 163 162
8 33 34 47 46 150 151 164 163
8 34 35 48 47 151 152 165 164
8 35 36 49 48 152 153 166 165
8 36 37 50 49 153 154 167 166
8 37 38 51 50 154 155 168 167
8 39 40 53 52 156 157 170 169
8 40 41 54 53 157 158 171 170
8 41 42 55 54 158 159 172 171
8 42 43 56 55 159 160 173 172
8 43 44 57 56 160 161 174 173
8 44 45 58 57 161 162 175 174
8 45 46 59 58 162 163 176 175
8 46 47 60 59 163 164 177 176
8 47 48 61 60 164 165 178 177
8 48 49 62 61 165 166 179 178
8 49 50 63 62 166 167 180 179
8 50 51 64 63 167 168 181 180
8 52 53 66 65 169 170 183 182
8 53 54 67 66 170 171 184 183
8 54 55 68 67 171 172 185 184
8 55 56 69 68 172 173 186 185
8 56 57 70 69 173 174 187 186
8 57 58 71 70 174 175 188 187
8 58 59 72 71 175 176 189 188
8 59 60 73 72 176 177 190 189
8 60 61 74 73 177 178 191 190
8 61 62 75 74 178 179 192 191
8 62 63 76 75 179 180 193 192
8 63 64 77 76 180 181 194 193
8 65 66 79 78 182 183 196 195
8 66 67 80 79 183 184 197 196
8 67 68 81 80 184 185 198 197
8 68 69 82 81 185 186 199 198
8 69 70 83 82 186 187 200 199
8 70 71 84 83 187 188 201 200
8 71 72 85 84 188 189 202 201
8 72 73 86 85 189 190 203 202
8 73 74 87 86 190 191 204 203
8 74 75 88 87 191 192 205 204
8 75 76 89 88 192 193 206 205
8 76 77 90 89 193 194 207 206
8 78 79 92 91 195 196 209 208
8 79 80 93 92 196 197 210 209
8 80 81 94 93 197 198 211 210
8 81 82 95 94 198 199 212 211
8 82 83 96 95 199 200 213 212
8 83 84 97 96 200 201 214 213
8 84 85 98 97 201 202 215 214
8 85 86 99 98 202 203 216 215
8 86 87 100 99 203 204 217 216
8 87 88 101 100 204 205 218 217
8 88 89 102 101 205 206 219 218
8 89 90 103 102 206 207 220 219
8 91 92 105 104 208 209 222 221
8 92 93 106 105 209 210 223 222
8 93 94 107 106 210 211 224 223
8 94 95 108 107 211 212 225 224
8 95 96 109 108 212 213 226 225
8 96 97 110 109 213 214 227 226
8 97 98 111 110 214 215 228 227
8 98 99 112 111 215 216 229 228
8 99 100 113 112 216 217 230 229
8 100 101 114 113 217 218 231 230
8 101 102 115 114 218 219 232 231
8 102 103 116 115 219 220 233 232
8 117 118 131 130 234 235 248 247
8 118 119 132 131 235 236 249 248
8 119 120 133 132 236 237 250 249
8 120 121 134 133 237 238 251 250
8 121 122 135 134 238 239 252 251
8 122 123 136 135 239 240 253 252
8 123 124 137 136 240 241 254 253
8 124 125 138 137 241 242 255 254
8 125 126 139 138 242 243 256 255
8 126 127 140 139 243 244 257 256
8 127 128 141 140 244 245 258 257
8 128 129 142 141 245 246 259 258
8 130 131 144 143 247 248 261 260
8 131 132 145 144 248 249 262 261
8 132 133 146 145 249 250 263 262
8 133 134 147 146 250 251 264 263
8 134 135 148 147 251 252 265 264
8 135 136 149 148 252 253 266 265
8 136 137 150 149 253 254 267 266
8 137 138 151 150 254 255 268 267
8 138 139 152 151 255 256 269 268
8 139 140 153 152 256 257 270 269
8 140 141 154 153 257 258 271 270
8 141 142 155 154 258 259 272 271
8 143 144 157 156 260 261 274 273
8 144 145 158 157 261 262 275 274
8 145 146 159 158 262 263 276 275
8 146 147 160 159 263 264 277 276
8 147 148 161 160 264 265 278 277
8 148 149 162 161 265 266 279 278
8 149 150 163 162 266 267 280 279
8 150 151 164 163 267 268 281 280
8 151 152 165 164 268 269 282 281
8 152 153 166 165 269 270 283 282
8 153 154 167 166 270 271 284 283
8 154 155 168 167 271 272 285 284
8 156 157 170 169 273 274 287 286
8 157 158 171 170 274 275 288 287
8 158 159 172 171 275 276 289 288
8 159 160 173 172 276 277 290 289
8 160 161 174 173 277 278 291 290
8 161 162 175 174 278 279 292 291
8 162 163 176 175 279 280 293 292
8 163 164 177 176 280 281 294 293
8 164 165 178 177 281 282 295 294
8 165 166 179 178 282 283 296 295
8 166 167 180 179 283 284 297 296
8 167 168 181 180 284 285 298 297
8 169 170 183 182 286 287 300 299
8 170 171 184 183 287 288 301 300
8 171 172 185 184 288 289 302 301
8 172 173 186 185 289 290 303 302
8 173 174 187 186 290 291 304 303
8 174 175 188 187 291 292 305 304
8 175 176 189 188 292 293 306 305
8 176 177 190 189 293 294 307 306
8 177 178 191 190 294 295 308 307
8 178 179 192 191 295 296 309 308
8 179 180 193 192 296 297 310 309
8 180 181 194 193 297 298 311 310
8 182 183 196 195 299 300 313 312
8 183 184 197 196 300 301 314 313
8 184 185 198 197 301 302 315 314
8 185 186 199 198 302 303 316 315
8 186 187 200 199 303 304 317 316
8 187 188 201 200 304 305 318 317
8 188 189 202 201 305 306 319 318
8 189 190 203 202 306 307 320 319
8 190 191 204 203 307 308 321 320
8 191 192 205 204 308 309 322 321
8 192 193 206 205 309 310 323 322
8 193 194 207 206 310 311 324 323
8 195 196 209 208 312 313 326 325
8 196 197 210 209 313 314 327 326
8 197 198 211 210 314 315 328 327
8 198 199 212 211 315 316 329 328
8 199 200 213 212 316 317 330 329
8 200 201 214 213 317 318 331 330
8 201 202 215 214 318 319 332 331
8 202 203 216 215 319 320 333 332
8 203 204 217 216 320 321 334 333
8 204 205 218 217 321 322 335 334
8 205 206 219 218 322 323 336 335
8 206 207 220 219 323 324 337 336
8 208 209 222 221 325 326 339 338
8 209 210 223 222 326 327 340 339
8 210 211 224 223 327 328 341 340
8 211 212 225 224 328 329 342 341
8 212 213 226 225 329 330 343 342
8 213 214 227 226 330 331 344 343
8 214 215 228 227 331 332 345 344
8 215 216 229 228 332 333 346 345
8 216 217 230 229 333 334 347 346
8 217 218 231 230 334 335 348 347
8 218 219 232 231 335 336 349 348
8 219 220 233 232 336 337 350 349
CELL_TYPES 192
12
12
12
12
12
12
12
12
12
12
12
12
12
12
12
12
12
12
12
12
12
12
12
12
12
12
12
12
12
12
12
12
12
12
12
12
12
12
12
12
12
12
12
12
12
12
12
12
12
12
12
12
12
12
12
12
12
12
12
12
12
12
12
12
12
12
12
12
12
12
12
12
12
12
12
12
12
12
12
12
12
12
12
12
12
12
12
12
12
12
12
12
12
12
12
12
12
12
12
12
12
12
12
12
12
12
12
12
12
12
12
12
12
12
12
12
12
12
12
12
12
12
12
12
12
12
12
12
12
12
12
12
12
12
12
12
12
12
12
12
12
12
12
12
12
12
12
12
12
12
12
12
12
12
12
12
12
12
12
12
12
12
12
12
12
12
12
12
12
12
12
12
12
12
12
12
12
12
12
12
12
12
12
12
12
12
12
12
12
12
12
12
CELL_DATA 192
SCALARS layer int 1
LOOKUP_TABLE default
1
1
1
1
1
1
1
1
1
1
1
1
1
1
1
1
1
1
1
1
1
1
1
1
1
1
1
1
1
1
1
1
1
1
1
1
1
1
1
1
1
1
1
1
1
1
1
1
1
1
1
1
1
1
1
1
1
1
1
1
1
1
1
1
1
1
1
1
1
1
1
1
1
1
1
1
1
1
1
1
1
1
1
1
1
1
1
1
1
1
1
1
1
1
1
1
2
2
2
2
2
2
2
2
2
2
2
2
2
2
2
2
2
2
2
2
2
2
2
2
2
2
2
2
2
2
2
2
2
2
2
2
2
2
2
2
2
2
2
2
2
2
2
2
2
2
2
2
2
2
2
2
2
2
2
2
2
2
2
2
2
2
2
2
2
2
2
2
2
2
2
2
2
2
2
2
2
2
2
2
2
2
2
2
2
2
2
2
2
2
2
2
